[ RRR ]
1     4     7
4     7    10
7    10    13
10   13    16
13   16    19
16   19    22
19   22    25
22   25    28
25   28    31
28   31    34
31   34    37
34   37    40
37   40    43
40   43    46
43   46    49
46   49    52
49   52    55
52   55    58

[ RDE ]
1     2     3
4     5     6
7     8     9
10   11    12
13   14    15
16   17    18
19   20    21
22   23    24
25   26    27
28   29    30
31   32    33
34   35    36
37   38    39
40   41    42
43   44    45
46   47    48
49   50    51
52   53    54
55   56    57
58   59    60


[ DRRright ]
2     1     4
5     4     7
8     7    10
11   10    13
14   13    16
17   16    19
20   19    22
23   22    25
26   25    28
29   28    31
32   31    34
35   34    37
38   37    40
41   40    43
44   43    46
47   46    49
50   49    52
53   52    55
56   55    58

[ DRRleft ]
5     4     1
8     7     4
11   10     7
14   13    10
17   16    13
20   19    16
23   22    19
26   25    22
29   28    25
32   31    28
35   34    31
38   37    34
41   40    37
44   43    40
47   46    43
50   49    46
53   52    49
56   55    52
59   58    55

