; /home/k/anaconda3/envs/polyply-env/bin/polyply gen_params -lib martini3 -o P3HT20.itp -name P3HT -seq P3HT:20

; Please cite the following papers:
; Grunewald, F; Alessandri, R; Kroon, P C; Monticelli, L; Souza, P C; Marrink, S J;  Nature Communications 2022; 10.1038/s41467-021-27627-4
; Kroon, P C; Grunewald, F; Barnoud, J; van Tilburg, M; Souza, P C; Wassenaar, T A; Marrink, S J;  elife 2024; 10.7554/elife.90627.2
; Souza, P C T; Alessandri, R; Barnoud, J; Thallmair, S; Faustino, I; Grünewald, F; Patmanidis, I; Abdizadeh, H; Bruininks, B M H; Wassenaar, T A; Kroon, P C; Melcr, J; Nieto, V; Corradi, V; Khan, H M; Domański, J; Javanainen, M; Martinez-Seara, H; Reuter, N; Best, R B; Vattulainen, I; Monticelli, L; Periole, X; Tieleman, D P; de Vries, A H; Marrink, S J;  Nature Methods 2021; 10.1038/s41592-021-01098-3

[ moleculetype ]
P3HT 1

[ atoms ]
  1 TC6  1 P3HT S1   1 0.0 36.0
  2 TC5  1 P3HT C2   2 0.0 36.0
  3 TC5  1 P3HT C3   3 0.0 36.0
  4 U    1 P3HT V4   4 0.0  0.0
  5 SC2  1 P3HT C5   5 0.0 54.0
  6 SC2  1 P3HT C6   6 0.0 54.0
  7 TC6  2 P3HT S1   7 0.0 36.0
  8 TC5  2 P3HT C2   8 0.0 36.0
  9 TC5  2 P3HT C3   9 0.0 36.0
 10 U    2 P3HT V4  10 0.0  0.0
 11 SC2  2 P3HT C5  11 0.0 54.0
 12 SC2  2 P3HT C6  12 0.0 54.0
 13 TC6  3 P3HT S1  13 0.0 36.0
 14 TC5  3 P3HT C2  14 0.0 36.0
 15 TC5  3 P3HT C3  15 0.0 36.0
 16 U    3 P3HT V4  16 0.0  0.0
 17 SC2  3 P3HT C5  17 0.0 54.0
 18 SC2  3 P3HT C6  18 0.0 54.0
 19 TC6  4 P3HT S1  19 0.0 36.0
 20 TC5  4 P3HT C2  20 0.0 36.0
 21 TC5  4 P3HT C3  21 0.0 36.0
 22 U    4 P3HT V4  22 0.0  0.0
 23 SC2  4 P3HT C5  23 0.0 54.0
 24 SC2  4 P3HT C6  24 0.0 54.0
 25 TC6  5 P3HT S1  25 0.0 36.0
 26 TC5  5 P3HT C2  26 0.0 36.0
 27 TC5  5 P3HT C3  27 0.0 36.0
 28 U    5 P3HT V4  28 0.0  0.0
 29 SC2  5 P3HT C5  29 0.0 54.0
 30 SC2  5 P3HT C6  30 0.0 54.0
 31 TC6  6 P3HT S1  31 0.0 36.0
 32 TC5  6 P3HT C2  32 0.0 36.0
 33 TC5  6 P3HT C3  33 0.0 36.0
 34 U    6 P3HT V4  34 0.0  0.0
 35 SC2  6 P3HT C5  35 0.0 54.0
 36 SC2  6 P3HT C6  36 0.0 54.0
 37 TC6  7 P3HT S1  37 0.0 36.0
 38 TC5  7 P3HT C2  38 0.0 36.0
 39 TC5  7 P3HT C3  39 0.0 36.0
 40 U    7 P3HT V4  40 0.0  0.0
 41 SC2  7 P3HT C5  41 0.0 54.0
 42 SC2  7 P3HT C6  42 0.0 54.0
 43 TC6  8 P3HT S1  43 0.0 36.0
 44 TC5  8 P3HT C2  44 0.0 36.0
 45 TC5  8 P3HT C3  45 0.0 36.0
 46 U    8 P3HT V4  46 0.0  0.0
 47 SC2  8 P3HT C5  47 0.0 54.0
 48 SC2  8 P3HT C6  48 0.0 54.0
 49 TC6  9 P3HT S1  49 0.0 36.0
 50 TC5  9 P3HT C2  50 0.0 36.0
 51 TC5  9 P3HT C3  51 0.0 36.0
 52 U    9 P3HT V4  52 0.0  0.0
 53 SC2  9 P3HT C5  53 0.0 54.0
 54 SC2  9 P3HT C6  54 0.0 54.0
 55 TC6 10 P3HT S1  55 0.0 36.0
 56 TC5 10 P3HT C2  56 0.0 36.0
 57 TC5 10 P3HT C3  57 0.0 36.0
 58 U   10 P3HT V4  58 0.0  0.0
 59 SC2 10 P3HT C5  59 0.0 54.0
 60 SC2 10 P3HT C6  60 0.0 54.0
 61 TC6 11 P3HT S1  61 0.0 36.0
 62 TC5 11 P3HT C2  62 0.0 36.0
 63 TC5 11 P3HT C3  63 0.0 36.0
 64 U   11 P3HT V4  64 0.0  0.0
 65 SC2 11 P3HT C5  65 0.0 54.0
 66 SC2 11 P3HT C6  66 0.0 54.0
 67 TC6 12 P3HT S1  67 0.0 36.0
 68 TC5 12 P3HT C2  68 0.0 36.0
 69 TC5 12 P3HT C3  69 0.0 36.0
 70 U   12 P3HT V4  70 0.0  0.0
 71 SC2 12 P3HT C5  71 0.0 54.0
 72 SC2 12 P3HT C6  72 0.0 54.0
 73 TC6 13 P3HT S1  73 0.0 36.0
 74 TC5 13 P3HT C2  74 0.0 36.0
 75 TC5 13 P3HT C3  75 0.0 36.0
 76 U   13 P3HT V4  76 0.0  0.0
 77 SC2 13 P3HT C5  77 0.0 54.0
 78 SC2 13 P3HT C6  78 0.0 54.0
 79 TC6 14 P3HT S1  79 0.0 36.0
 80 TC5 14 P3HT C2  80 0.0 36.0
 81 TC5 14 P3HT C3  81 0.0 36.0
 82 U   14 P3HT V4  82 0.0  0.0
 83 SC2 14 P3HT C5  83 0.0 54.0
 84 SC2 14 P3HT C6  84 0.0 54.0
 85 TC6 15 P3HT S1  85 0.0 36.0
 86 TC5 15 P3HT C2  86 0.0 36.0
 87 TC5 15 P3HT C3  87 0.0 36.0
 88 U   15 P3HT V4  88 0.0  0.0
 89 SC2 15 P3HT C5  89 0.0 54.0
 90 SC2 15 P3HT C6  90 0.0 54.0
 91 TC6 16 P3HT S1  91 0.0 36.0
 92 TC5 16 P3HT C2  92 0.0 36.0
 93 TC5 16 P3HT C3  93 0.0 36.0
 94 U   16 P3HT V4  94 0.0  0.0
 95 SC2 16 P3HT C5  95 0.0 54.0
 96 SC2 16 P3HT C6  96 0.0 54.0
 97 TC6 17 P3HT S1  97 0.0 36.0
 98 TC5 17 P3HT C2  98 0.0 36.0
 99 TC5 17 P3HT C3  99 0.0 36.0
100 U   17 P3HT V4 100 0.0  0.0
101 SC2 17 P3HT C5 101 0.0 54.0
102 SC2 17 P3HT C6 102 0.0 54.0
103 TC6 18 P3HT S1 103 0.0 36.0
104 TC5 18 P3HT C2 104 0.0 36.0
105 TC5 18 P3HT C3 105 0.0 36.0
106 U   18 P3HT V4 106 0.0  0.0
107 SC2 18 P3HT C5 107 0.0 54.0
108 SC2 18 P3HT C6 108 0.0 54.0
109 TC6 19 P3HT S1 109 0.0 36.0
110 TC5 19 P3HT C2 110 0.0 36.0
111 TC5 19 P3HT C3 111 0.0 36.0
112 U   19 P3HT V4 112 0.0  0.0
113 SC2 19 P3HT C5 113 0.0 54.0
114 SC2 19 P3HT C6 114 0.0 54.0
115 TC6 20 P3HT S1 115 0.0 36.0
116 TC5 20 P3HT C2 116 0.0 36.0
117 TC5 20 P3HT C3 117 0.0 36.0
118 U   20 P3HT V4 118 0.0  0.0
119 SC2 20 P3HT C5 119 0.0 54.0
120 SC2 20 P3HT C6 120 0.0 54.0

[ bonds ]
  4  10 1 0.380 50000
  5   6 1 0.360 5000
 10  16 1 0.380 50000
 11  12 1 0.360 5000
 16  22 1 0.380 50000
 17  18 1 0.360 5000
 22  28 1 0.380 50000
 23  24 1 0.360 5000
 28  34 1 0.380 50000
 29  30 1 0.360 5000
 34  40 1 0.380 50000
 35  36 1 0.360 5000
 40  46 1 0.380 50000
 41  42 1 0.360 5000
 46  52 1 0.380 50000
 47  48 1 0.360 5000
 52  58 1 0.380 50000
 53  54 1 0.360 5000
 58  64 1 0.380 50000
 59  60 1 0.360 5000
 64  70 1 0.380 50000
 65  66 1 0.360 5000
 70  76 1 0.380 50000
 71  72 1 0.360 5000
 76  82 1 0.380 50000
 77  78 1 0.360 5000
 82  88 1 0.380 50000
 83  84 1 0.360 5000
 88  94 1 0.380 50000
 89  90 1 0.360 5000
 94 100 1 0.380 50000
 95  96 1 0.360 5000
100 106 1 0.380 50000
101 102 1 0.360 5000
106 112 1 0.380 50000
107 108 1 0.360 5000
112 118 1 0.380 50000
113 114 1 0.360 5000
119 120 1 0.360 5000

#ifdef FLEXIBLE
  1   2 1 0.270 100000
  1   3 1 0.270 100000
  2   3 1 0.280 100000
  3   5 1 0.285 100000
  7   8 1 0.270 100000
  7   9 1 0.270 100000
  8   9 1 0.280 100000
  9  11 1 0.285 100000
 13  14 1 0.270 100000
 13  15 1 0.270 100000
 14  15 1 0.280 100000
 15  17 1 0.285 100000
 19  20 1 0.270 100000
 19  21 1 0.270 100000
 20  21 1 0.280 100000
 21  23 1 0.285 100000
 25  26 1 0.270 100000
 25  27 1 0.270 100000
 26  27 1 0.280 100000
 27  29 1 0.285 100000
 31  32 1 0.270 100000
 31  33 1 0.270 100000
 32  33 1 0.280 100000
 33  35 1 0.285 100000
 37  38 1 0.270 100000
 37  39 1 0.270 100000
 38  39 1 0.280 100000
 39  41 1 0.285 100000
 43  44 1 0.270 100000
 43  45 1 0.270 100000
 44  45 1 0.280 100000
 45  47 1 0.285 100000
 49  50 1 0.270 100000
 49  51 1 0.270 100000
 50  51 1 0.280 100000
 51  53 1 0.285 100000
 55  56 1 0.270 100000
 55  57 1 0.270 100000
 56  57 1 0.280 100000
 57  59 1 0.285 100000
 61  62 1 0.270 100000
 61  63 1 0.270 100000
 62  63 1 0.280 100000
 63  65 1 0.285 100000
 67  68 1 0.270 100000
 67  69 1 0.270 100000
 68  69 1 0.280 100000
 69  71 1 0.285 100000
 73  74 1 0.270 100000
 73  75 1 0.270 100000
 74  75 1 0.280 100000
 75  77 1 0.285 100000
 79  80 1 0.270 100000
 79  81 1 0.270 100000
 80  81 1 0.280 100000
 81  83 1 0.285 100000
 85  86 1 0.270 100000
 85  87 1 0.270 100000
 86  87 1 0.280 100000
 87  89 1 0.285 100000
 91  92 1 0.270 100000
 91  93 1 0.270 100000
 92  93 1 0.280 100000
 93  95 1 0.285 100000
 97  98 1 0.270 100000
 97  99 1 0.270 100000
 98  99 1 0.280 100000
 99 101 1 0.285 100000
103 104 1 0.270 100000
103 105 1 0.270 100000
104 105 1 0.280 100000
105 107 1 0.285 100000
109 110 1 0.270 100000
109 111 1 0.270 100000
110 111 1 0.280 100000
111 113 1 0.285 100000
115 116 1 0.270 100000
115 117 1 0.270 100000
116 117 1 0.280 100000
117 119 1 0.285 100000
#endif

[ constraints ]
#ifndef FLEXIBLE
  1   2 1 0.270
  1   3 1 0.270
  2   3 1 0.280
  3   5 1 0.285
  7   8 1 0.270
  7   9 1 0.270
  8   9 1 0.280
  9  11 1 0.285
 13  14 1 0.270
 13  15 1 0.270
 14  15 1 0.280
 15  17 1 0.285
 19  20 1 0.270
 19  21 1 0.270
 20  21 1 0.280
 21  23 1 0.285
 25  26 1 0.270
 25  27 1 0.270
 26  27 1 0.280
 27  29 1 0.285
 31  32 1 0.270
 31  33 1 0.270
 32  33 1 0.280
 33  35 1 0.285
 37  38 1 0.270
 37  39 1 0.270
 38  39 1 0.280
 39  41 1 0.285
 43  44 1 0.270
 43  45 1 0.270
 44  45 1 0.280
 45  47 1 0.285
 49  50 1 0.270
 49  51 1 0.270
 50  51 1 0.280
 51  53 1 0.285
 55  56 1 0.270
 55  57 1 0.270
 56  57 1 0.280
 57  59 1 0.285
 61  62 1 0.270
 61  63 1 0.270
 62  63 1 0.280
 63  65 1 0.285
 67  68 1 0.270
 67  69 1 0.270
 68  69 1 0.280
 69  71 1 0.285
 73  74 1 0.270
 73  75 1 0.270
 74  75 1 0.280
 75  77 1 0.285
 79  80 1 0.270
 79  81 1 0.270
 80  81 1 0.280
 81  83 1 0.285
 85  86 1 0.270
 85  87 1 0.270
 86  87 1 0.280
 87  89 1 0.285
 91  92 1 0.270
 91  93 1 0.270
 92  93 1 0.280
 93  95 1 0.285
 97  98 1 0.270
 97  99 1 0.270
 98  99 1 0.280
 99 101 1 0.285
103 104 1 0.270
103 105 1 0.270
104 105 1 0.280
105 107 1 0.285
109 110 1 0.270
109 111 1 0.270
110 111 1 0.280
111 113 1 0.285
115 116 1 0.270
115 117 1 0.270
116 117 1 0.280
117 119 1 0.285
#endif

[ angles ]
  1   3   5 2 180 250
  2   3  10 1 160 180
  3   5   6 1 155 25
  4   8   9 1 160 180
  7   9  11 2 180 250
  8   9  16 1 160 180
  4  10  16 1 158 180 ; connection i-j-k
  9  11  12 1 155 25
 10  14  15 1 160 180
 13  15  17 2 180 250
 14  15  22 1 160 180
 10  16  22 1 158 180 ; connection i-j-k
 15  17  18 1 155 25
 16  20  21 1 160 180
 19  21  23 2 180 250
 20  21  28 1 160 180
 16  22  28 1 158 180 ; connection i-j-k
 21  23  24 1 155 25
 22  26  27 1 160 180
 25  27  29 2 180 250
 26  27  34 1 160 180
 22  28  34 1 158 180 ; connection i-j-k
 27  29  30 1 155 25
 28  32  33 1 160 180
 31  33  35 2 180 250
 32  33  40 1 160 180
 28  34  40 1 158 180 ; connection i-j-k
 33  35  36 1 155 25
 34  38  39 1 160 180
 37  39  41 2 180 250
 38  39  46 1 160 180
 34  40  46 1 158 180 ; connection i-j-k
 39  41  42 1 155 25
 40  44  45 1 160 180
 43  45  47 2 180 250
 44  45  52 1 160 180
 40  46  52 1 158 180 ; connection i-j-k
 45  47  48 1 155 25
 46  50  51 1 160 180
 49  51  53 2 180 250
 50  51  58 1 160 180
 46  52  58 1 158 180 ; connection i-j-k
 51  53  54 1 155 25
 52  56  57 1 160 180
 55  57  59 2 180 250
 56  57  64 1 160 180
 52  58  64 1 158 180 ; connection i-j-k
 57  59  60 1 155 25
 58  62  63 1 160 180
 61  63  65 2 180 250
 62  63  70 1 160 180
 58  64  70 1 158 180 ; connection i-j-k
 63  65  66 1 155 25
 64  68  69 1 160 180
 67  69  71 2 180 250
 68  69  76 1 160 180
 64  70  76 1 158 180 ; connection i-j-k
 69  71  72 1 155 25
 70  74  75 1 160 180
 73  75  77 2 180 250
 74  75  82 1 160 180
 70  76  82 1 158 180 ; connection i-j-k
 75  77  78 1 155 25
 76  80  81 1 160 180
 79  81  83 2 180 250
 80  81  88 1 160 180
 76  82  88 1 158 180 ; connection i-j-k
 81  83  84 1 155 25
 82  86  87 1 160 180
 85  87  89 2 180 250
 86  87  94 1 160 180
 82  88  94 1 158 180 ; connection i-j-k
 87  89  90 1 155 25
 88  92  93 1 160 180
 91  93  95 2 180 250
 92  93 100 1 160 180
 88  94 100 1 158 180 ; connection i-j-k
 93  95  96 1 155 25
 94  98  99 1 160 180
 97  99 101 2 180 250
 98  99 106 1 160 180
 94 100 106 1 158 180 ; connection i-j-k
 99 101 102 1 155 25
100 104 105 1 160 180
103 105 107 2 180 250
104 105 112 1 160 180
100 106 112 1 158 180 ; connection i-j-k
105 107 108 1 155 25
106 110 111 1 160 180
109 111 113 2 180 250
110 111 118 1 160 180
106 112 118 1 158 180 ; connection i-j-k
111 113 114 1 155 25
112 116 117 1 160 180
115 117 119 2 180 250
117 119 120 1 155 25

[ dihedrals ]
  1   4  10   7 9 0.0 1.8 1
  1   4  10   7 9 0.0 -9.5 2
  7  10  16  13 9 0.0 1.8 1
  7  10  16  13 9 0.0 -9.5 2
 13  16  22  19 9 0.0 1.8 1
 13  16  22  19 9 0.0 -9.5 2
 19  22  28  25 9 0.0 1.8 1
 19  22  28  25 9 0.0 -9.5 2
 25  28  34  31 9 0.0 1.8 1
 25  28  34  31 9 0.0 -9.5 2
 31  34  40  37 9 0.0 1.8 1
 31  34  40  37 9 0.0 -9.5 2
 37  40  46  43 9 0.0 1.8 1
 37  40  46  43 9 0.0 -9.5 2
 43  46  52  49 9 0.0 1.8 1
 43  46  52  49 9 0.0 -9.5 2
 49  52  58  55 9 0.0 1.8 1
 49  52  58  55 9 0.0 -9.5 2
 55  58  64  61 9 0.0 1.8 1
 55  58  64  61 9 0.0 -9.5 2
 61  64  70  67 9 0.0 1.8 1
 61  64  70  67 9 0.0 -9.5 2
 67  70  76  73 9 0.0 1.8 1
 67  70  76  73 9 0.0 -9.5 2
 73  76  82  79 9 0.0 1.8 1
 73  76  82  79 9 0.0 -9.5 2
 79  82  88  85 9 0.0 1.8 1
 79  82  88  85 9 0.0 -9.5 2
 85  88  94  91 9 0.0 1.8 1
 85  88  94  91 9 0.0 -9.5 2
 91  94 100  97 9 0.0 1.8 1
 91  94 100  97 9 0.0 -9.5 2
 97 100 106 103 9 0.0 1.8 1
 97 100 106 103 9 0.0 -9.5 2
103 106 112 109 9 0.0 1.8 1
103 106 112 109 9 0.0 -9.5 2
109 112 118 115 9 0.0 1.8 1
109 112 118 115 9 0.0 -9.5 2

[ exclusions ]
  1   7   8   9 
  2   7   8   9 
  3   7   8   9 
  7  13  14  15 
  8  13  14  15 
  9  13  14  15 
 13  19  20  21 
 14  19  20  21 
 15  19  20  21 
 19  25  26  27 
 20  25  26  27 
 21  25  26  27 
 25  31  32  33 
 26  31  32  33 
 27  31  32  33 
 31  37  38  39 
 32  37  38  39 
 33  37  38  39 
 37  43  44  45 
 38  43  44  45 
 39  43  44  45 
 43  49  50  51 
 44  49  50  51 
 45  49  50  51 
 49  55  56  57 
 50  55  56  57 
 51  55  56  57 
 55  61  62  63 
 56  61  62  63 
 57  61  62  63 
 61  67  68  69 
 62  67  68  69 
 63  67  68  69 
 67  73  74  75 
 68  73  74  75 
 69  73  74  75 
 73  79  80  81 
 74  79  80  81 
 75  79  80  81 
 79  85  86  87 
 80  85  86  87 
 81  85  86  87 
 85  91  92  93 
 86  91  92  93 
 87  91  92  93 
 91  97  98  99 
 92  97  98  99 
 93  97  98  99 
 97 103 104 105 
 98 103 104 105 
 99 103 104 105 
103 109 110 111 
104 109 110 111 
105 109 110 111 
109 115 116 117 
110 115 116 117 
111 115 116 117 

[ virtual_sitesn ]
  4 1   1   2   3
 10 1   7   8   9
 16 1  13  14  15
 22 1  19  20  21
 28 1  25  26  27
 34 1  31  32  33
 40 1  37  38  39
 46 1  43  44  45
 52 1  49  50  51
 58 1  55  56  57
 64 1  61  62  63
 70 1  67  68  69
 76 1  73  74  75
 82 1  79  80  81
 88 1  85  86  87
 94 1  91  92  93
100 1  97  98  99
106 1 103 104 105
112 1 109 110 111
118 1 115 116 117

