; charge from 1.2*CM5
;
; GENERATED BY LigParGen Server
; Jorgensen Lab @ Yale University 
;

[ moleculetype ]
; Name               nrexcl
MOL                   3
[ atoms ]
;   nr       type  resnr residue  atom   cgnr     charge       mass  
     1   opls_800      1    MOL   C00      1    -0.1087    12.0110 
     2   opls_801      1    MOL   C01      1    -0.1309    12.0110 
     3   opls_802      1    MOL   C02      1    -0.1113    12.0110 
     4   opls_803      1    MOL   C03      1    -0.1444    12.0110 
     5   opls_804      1    MOL   C04      1     0.1150    12.0110 
     6   opls_805      1    MOL   C05      1    -0.1269    12.0110 
     7   opls_806      1    MOL   O06      1    -0.2707    15.9990 
     8   opls_807      1    MOL   C07      1    -0.1243    12.0110 
     9   opls_808      1    MOL   H08      1     0.1124     1.0080 
    10   opls_809      1    MOL   H09      1     0.1082     1.0080 
    11   opls_810      1    MOL   H0A      1     0.1110     1.0080 
    12   opls_811      1    MOL   H0B      1     0.1093     1.0080 
    13   opls_812      1    MOL   H0C      1     0.1182     1.0080 
    14   opls_813      1    MOL   H0D      1     0.1090     1.0080 
    15   opls_814      1    MOL   H0E      1     0.1090     1.0080 
    16   opls_815      1    MOL   H0F      1     0.1251     1.0080 
[ bonds ]
    2     1     1      0.1400 392459.200
    3     2     1      0.1400 392459.200
    4     3     1      0.1400 392459.200
    5     4     1      0.1400 392459.200
    6     1     1      0.1400 392459.200
    7     5     1      0.1364 376560.000
    8     7     1      0.1410 267776.000
    9     1     1      0.1080 307105.600
   10     2     1      0.1080 307105.600
   11     3     1      0.1080 307105.600
   12     4     1      0.1080 307105.600
   13     6     1      0.1080 307105.600
   14     8     1      0.1090 284512.000
   15     8     1      0.1090 284512.000
   16     8     1      0.1090 284512.000
    6     5     1      0.1400 392459.200

[ angles ]
;  ai    aj    ak funct            c0            c1            c2            c3 
    1     2     3     1    120.000    527.184
    2     3     4     1    120.000    527.184
    3     4     5     1    120.000    527.184
    2     1     6     1    120.000    527.184
    4     5     7     1    120.000    585.760
    5     7     8     1    111.000    627.600
    2     1     9     1    120.000    292.880
    1     2    10     1    120.000    292.880
    2     3    11     1    120.000    292.880
    3     4    12     1    120.000    292.880
    1     6    13     1    120.000    292.880
    7     8    14     1    109.500    292.880
    7     8    15     1    109.500    292.880
    7     8    16     1    109.500    292.880
    4     3    11     1    120.000    292.880
    5     4    12     1    120.000    292.880
   15     8    16     1    107.800    276.144
    4     5     6     1    120.000    527.184
    6     1     9     1    120.000    292.880
    5     6    13     1    120.000    292.880
   14     8    16     1    107.800    276.144
    6     5     7     1    120.000    585.760
   14     8    15     1    107.800    276.144
    1     6     5     1    120.000    527.184
    3     2    10     1    120.000    292.880

[ dihedrals ]
; IMPROPER DIHEDRAL ANGLES 
;  ai    aj    ak    al funct            c0            c1            c2            c3            c4            c5
    11     3     2     4    4        180.000     10.460     2  
     9     1     2     6    4        180.000     10.460     2  
    10     2     1     3    4        180.000     10.460     2  
    12     4     3     5    4        180.000     10.460     2  
    13     6     1     5    4        180.000     10.460     2  
     7     5     4     6    4        180.000     10.460     2  

[ dihedrals ]
; PROPER DIHEDRAL ANGLES
;  ai    aj    ak    al funct            c0            c1            c2            c3            c4            c5
    4    3    2    1        3      30.334   0.000  -30.334  -0.000  -0.000   0.000
    5    4    3    2        3      30.334   0.000  -30.334  -0.000  -0.000   0.000
    6    1    2    3        3      30.334   0.000  -30.334  -0.000  -0.000   0.000
    4    5    6    1        3      30.334   0.000  -30.334  -0.000  -0.000   0.000
    5    6    1    2        3      30.334   0.000  -30.334  -0.000  -0.000   0.000
    6    5    4    3        3      30.334   0.000  -30.334  -0.000  -0.000   0.000
    8    7    5    4        3      12.552   0.000  -12.552  -0.000  -0.000   0.000
    8    7    5    6        3      12.552   0.000  -12.552  -0.000  -0.000   0.000
   13    6    1    2        3      30.334   0.000  -30.334  -0.000  -0.000   0.000
    9    1    6    5        3      30.334   0.000  -30.334  -0.000  -0.000   0.000
   10    2    1    6        3      30.334   0.000  -30.334  -0.000  -0.000   0.000
   12    4    5    6        3      30.334   0.000  -30.334  -0.000  -0.000   0.000
   13    6    5    4        3      30.334   0.000  -30.334  -0.000  -0.000   0.000
   11    3    4    5        3      30.334   0.000  -30.334  -0.000  -0.000   0.000
   10    2    3    4        3      30.334   0.000  -30.334  -0.000  -0.000   0.000
    9    1    2    3        3      30.334   0.000  -30.334  -0.000  -0.000   0.000
   11    3    2    1        3      30.334   0.000  -30.334  -0.000  -0.000   0.000
   12    4    3    2        3      30.334   0.000  -30.334  -0.000  -0.000   0.000
   13    6    1    9        3      30.334   0.000  -30.334  -0.000  -0.000   0.000
   10    2    1    9        3      30.334   0.000  -30.334  -0.000  -0.000   0.000
   12    4    3   11        3      30.334   0.000  -30.334  -0.000  -0.000   0.000
   11    3    2   10        3      30.334   0.000  -30.334  -0.000  -0.000   0.000
   13    6    5    7        3      30.334   0.000  -30.334  -0.000  -0.000   0.000
   12    4    5    7        3      30.334   0.000  -30.334  -0.000  -0.000   0.000
   14    8    7    5        3       1.590   4.770   0.000  -6.360  -0.000   0.000
   15    8    7    5        3       1.590   4.770   0.000  -6.360  -0.000   0.000
   16    8    7    5        3       1.590   4.770   0.000  -6.360  -0.000   0.000
    7    5    6    1        3      30.334   0.000  -30.334  -0.000  -0.000   0.000
    7    5    4    3        3      30.334   0.000  -30.334  -0.000  -0.000   0.000

[ pairs ]
     1     4    1
     2     5    1
     1     7    1
     3     6    1
     3     7    1
     4     8    1
     3     9    1
     1    11    1
     6     8    1
     5     9    1
     4    10    1
     2    12    1
     2    13    1
     6    10    1
     5    11    1
     4    13    1
     6    12    1
     9    10    1
     7    12    1
     5    14    1
     7    13    1
     5    15    1
    10    11    1
     5    16    1
     9    13    1
    11    12    1

